LAMMPS data file
# 1 BEN molecules

2 atom types
2 bond types
2 angle types
3 dihedral types
1 improper types

12 atoms
12 bonds
18 angles
24 dihedrals
6 impropers

-5.979 5.979 xlo xhi
-5.647 5.647 ylo yhi
-5.5015 5.5015 zlo zhi

Masses

1   12.010  # ca BEN
2    1.008  # ha BEN

Pair Coeffs

1 0.069954520815 3.550  # ca BEN
2 0.0299807926175 2.420  # ha BEN

Bond Coeffs

1 609.586943278  1.394  # harmonic BEN ca ca
2 344.069163895  1.080  # harmonic BEN ca ha

Angle Coeffs

1 79.9470592195  120.00  # harmonic BEN ca ca ca
2 59.9603937085  120.00  # harmonic BEN ca ca ha

Dihedral Coeffs

1 3.09784974735  2 180 0.0  # charmm BEN ca ca ca ca
2 4.19726926302  2 180 0.0  # charmm BEN ca ca ca ha
3 2.39850908458  2 180 0.0  # charmm BEN ha ca ca ha

Improper Coeffs

1 4.19726926302 -1  2  # cvff BEN ca ca ca ha

Atoms

1 1 1 -0.115000   -0.69700   -1.20800    0.00050  # ca C1 BEN 1
2 1 1 -0.115000    0.69800   -1.20800    0.00150  # ca C2 BEN 1
3 1 1 -0.115000    1.39500    0.00000    0.00050  # ca C3 BEN 1
4 1 1 -0.115000    0.69800    1.20700   -0.00050  # ca C4 BEN 1
5 1 1 -0.115000   -0.69700    1.20700   -0.00050  # ca C5 BEN 1
6 1 1 -0.115000   -1.39400    0.00000   -0.00050  # ca C6 BEN 1
7 1 2  0.115000   -1.23900   -2.14700    0.00050  # ha H1 BEN 1
8 1 2  0.115000    1.24000   -2.14700    0.00150  # ha H2 BEN 1
9 1 2  0.115000    2.47900   -0.00100    0.00050  # ha H3 BEN 1
10 1 2  0.115000    1.24000    2.14600   -0.00050  # ha H4 BEN 1
11 1 2  0.115000   -1.23900    2.14700   -0.00150  # ha H5 BEN 1
12 1 2  0.115000   -2.47900    0.00000   -0.00050  # ha H6 BEN 1

Bonds

1 1 1 2  # BEN 1 C1 C2
2 1 1 6  # BEN 1 C1 C6
3 2 1 7  # BEN 1 C1 H1
4 1 2 3  # BEN 1 C2 C3
5 2 2 8  # BEN 1 C2 H2
6 1 3 4  # BEN 1 C3 C4
7 2 3 9  # BEN 1 C3 H3
8 1 4 5  # BEN 1 C4 C5
9 2 4 10  # BEN 1 C4 H4
10 1 5 6  # BEN 1 C5 C6
11 2 5 11  # BEN 1 C5 H5
12 2 6 12  # BEN 1 C6 H6

Angles

1 1 1 2 3  # BEN 1 C1 C2 C3
2 2 1 2 8  # BEN 1 C1 C2 H2
3 1 1 6 5  # BEN 1 C1 C6 C5
4 2 1 6 12  # BEN 1 C1 C6 H6
5 1 2 1 6  # BEN 1 C2 C1 C6
6 2 2 1 7  # BEN 1 C2 C1 H1
7 1 2 3 4  # BEN 1 C2 C3 C4
8 2 2 3 9  # BEN 1 C2 C3 H3
9 2 3 2 8  # BEN 1 C3 C2 H2
10 1 3 4 5  # BEN 1 C3 C4 C5
11 2 3 4 10  # BEN 1 C3 C4 H4
12 2 4 3 9  # BEN 1 C4 C3 H3
13 1 4 5 6  # BEN 1 C4 C5 C6
14 2 4 5 11  # BEN 1 C4 C5 H5
15 2 5 4 10  # BEN 1 C5 C4 H4
16 2 5 6 12  # BEN 1 C5 C6 H6
17 2 6 1 7  # BEN 1 C6 C1 H1
18 2 6 5 11  # BEN 1 C6 C5 H5

Dihedrals

1 1 6 1 2 3  # BEN 1 C6 C1 C2 C3
2 2 7 1 2 3  # BEN 1 H1 C1 C2 C3
3 2 6 1 2 8  # BEN 1 C6 C1 C2 H2
4 3 7 1 2 8  # BEN 1 H1 C1 C2 H2
5 1 2 1 6 5  # BEN 1 C2 C1 C6 C5
6 2 7 1 6 5  # BEN 1 H1 C1 C6 C5
7 2 2 1 6 12  # BEN 1 C2 C1 C6 H6
8 3 7 1 6 12  # BEN 1 H1 C1 C6 H6
9 1 1 2 3 4  # BEN 1 C1 C2 C3 C4
10 2 8 2 3 4  # BEN 1 H2 C2 C3 C4
11 2 1 2 3 9  # BEN 1 C1 C2 C3 H3
12 3 8 2 3 9  # BEN 1 H2 C2 C3 H3
13 1 2 3 4 5  # BEN 1 C2 C3 C4 C5
14 2 9 3 4 5  # BEN 1 H3 C3 C4 C5
15 2 2 3 4 10  # BEN 1 C2 C3 C4 H4
16 3 9 3 4 10  # BEN 1 H3 C3 C4 H4
17 1 3 4 5 6  # BEN 1 C3 C4 C5 C6
18 2 10 4 5 6  # BEN 1 H4 C4 C5 C6
19 2 3 4 5 11  # BEN 1 C3 C4 C5 H5
20 3 10 4 5 11  # BEN 1 H4 C4 C5 H5
21 1 4 5 6 1  # BEN 1 C4 C5 C6 C1
22 2 11 5 6 1  # BEN 1 H5 C5 C6 C1
23 2 4 5 6 12  # BEN 1 C4 C5 C6 H6
24 3 11 5 6 12  # BEN 1 H5 C5 C6 H6

Impropers

1 1 2 6 1 7  # BEN 1 C2 C6 C1 H1
2 1 1 3 2 8  # BEN 1 C1 C3 C2 H2
3 1 2 4 3 9  # BEN 1 C2 C4 C3 H3
4 1 3 5 4 10  # BEN 1 C3 C5 C4 H4
5 1 4 6 5 11  # BEN 1 C4 C6 C5 H5
6 1 1 5 6 12  # BEN 1 C1 C5 C6 H6
